# vtk DataFile Version 3.0
#This file was generated by the deal.II library on 2020/8/5 at 13:06:07
ASCII
DATASET UNSTRUCTURED_GRID

POINTS 216 double
0 0 0
0.333333 0 0
0 0.333333 0
0.333333 0.333333 0
0 0 0.333333
0.333333 0 0.333333
0 0.333333 0.333333
0.333333 0.333333 0.333333
0.333333 0 0
0.666667 0 0
0.333333 0.333333 0
0.666667 0.333333 0
0.333333 0 0.333333
0.666667 0 0.333333
0.333333 0.333333 0.333333
0.666667 0.333333 0.333333
0.666667 0 0
1 0 0
0.666667 0.333333 0
1 0.333333 0
0.666667 0 0.333333
1 0 0.333333
0.666667 0.333333 0.333333
1 0.333333 0.333333
0 0.333333 0
0.333333 0.333333 0
0 0.666667 0
0.333333 0.666667 0
0 0.333333 0.333333
0.333333 0.333333 0.333333
0 0.666667 0.333333
0.333333 0.666667 0.333333
0.333333 0.333333 0
0.666667 0.333333 0
0.333333 0.666667 0
0.666667 0.666667 0
0.333333 0.333333 0.333333
0.666667 0.333333 0.333333
0.333333 0.666667 0.333333
0.666667 0.666667 0.333333
0.666667 0.333333 0
1 0.333333 0
0.666667 0.666667 0
1 0.666667 0
0.666667 0.333333 0.333333
1 0.333333 0.333333
0.666667 0.666667 0.333333
1 0.666667 0.333333
0 0.666667 0
0.333333 0.666667 0
0 1 0
0.333333 1 0
0 0.666667 0.333333
0.333333 0.666667 0.333333
0 1 0.333333
0.333333 1 0.333333
0.333333 0.666667 0
0.666667 0.666667 0
0.333333 1 0
0.666667 1 0
0.333333 0.666667 0.333333
0.666667 0.666667 0.333333
0.333333 1 0.333333
0.666667 1 0.333333
0.666667 0.666667 0
1 0.666667 0
0.666667 1 0
1 1 0
0.666667 0.666667 0.333333
1 0.666667 0.333333
0.666667 1 0.333333
1 1 0.333333
0 0 0.333333
0.333333 0 0.333333
0 0.333333 0.333333
0.333333 0.333333 0.333333
0 0 0.666667
0.333333 0 0.666667
0 0.333333 0.666667
0.333333 0.333333 0.666667
0.333333 0 0.333333
0.666667 0 0.333333
0.333333 0.333333 0.333333
0.666667 0.333333 0.333333
0.333333 0 0.666667
0.666667 0 0.666667
0.333333 0.333333 0.666667
0.666667 0.333333 0.666667
0.666667 0 0.333333
1 0 0.333333
0.666667 0.333333 0.333333
1 0.333333 0.333333
0.666667 0 0.666667
1 0 0.666667
0.666667 0.333333 0.666667
1 0.333333 0.666667
0 0.333333 0.333333
0.333333 0.333333 0.333333
0 0.666667 0.333333
0.333333 0.666667 0.333333
0 0.333333 0.666667
0.333333 0.333333 0.666667
0 0.666667 0.666667
0.333333 0.666667 0.666667
0.333333 0.333333 0.333333
0.666667 0.333333 0.333333
0.333333 0.666667 0.333333
0.666667 0.666667 0.333333
0.333333 0.333333 0.666667
0.666667 0.333333 0.666667
0.333333 0.666667 0.666667
0.666667 0.666667 0.666667
0.666667 0.333333 0.333333
1 0.333333 0.333333
0.666667 0.666667 0.333333
1 0.666667 0.333333
0.666667 0.333333 0.666667
1 0.333333 0.666667
0.666667 0.666667 0.666667
1 0.666667 0.666667
0 0.666667 0.333333
0.333333 0.666667 0.333333
0 1 0.333333
0.333333 1 0.333333
0 0.666667 0.666667
0.333333 0.666667 0.666667
0 1 0.666667
0.333333 1 0.666667
0.333333 0.666667 0.333333
0.666667 0.666667 0.333333
0.333333 1 0.333333
0.666667 1 0.333333
0.333333 0.666667 0.666667
0.666667 0.666667 0.666667
0.333333 1 0.666667
0.666667 1 0.666667
0.666667 0.666667 0.333333
1 0.666667 0.333333
0.666667 1 0.333333
1 1 0.333333
0.666667 0.666667 0.666667
1 0.666667 0.666667
0.666667 1 0.666667
1 1 0.666667
0 0 0.666667
0.333333 0 0.666667
0 0.333333 0.666667
0.333333 0.333333 0.666667
0 0 1
0.333333 0 1
0 0.333333 1
0.333333 0.333333 1
0.333333 0 0.666667
0.666667 0 0.666667
0.333333 0.333333 0.666667
0.666667 0.333333 0.666667
0.333333 0 1
0.666667 0 1
0.333333 0.333333 1
0.666667 0.333333 1
0.666667 0 0.666667
1 0 0.666667
0.666667 0.333333 0.666667
1 0.333333 0.666667
0.666667 0 1
1 0 1
0.666667 0.333333 1
1 0.333333 1
0 0.333333 0.666667
0.333333 0.333333 0.666667
0 0.666667 0.666667
0.333333 0.666667 0.666667
0 0.333333 1
0.333333 0.333333 1
0 0.666667 1
0.333333 0.666667 1
0.333333 0.333333 0.666667
0.666667 0.333333 0.666667
0.333333 0.666667 0.666667
0.666667 0.666667 0.666667
0.333333 0.333333 1
0.666667 0.333333 1
0.333333 0.666667 1
0.666667 0.666667 1
0.666667 0.333333 0.666667
1 0.333333 0.666667
0.666667 0.666667 0.666667
1 0.666667 0.666667
0.666667 0.333333 1
1 0.333333 1
0.666667 0.666667 1
1 0.666667 1
0 0.666667 0.666667
0.333333 0.666667 0.666667
0 1 0.666667
0.333333 1 0.666667
0 0.666667 1
0.333333 0.666667 1
0 1 1
0.333333 1 1
0.333333 0.666667 0.666667
0.666667 0.666667 0.666667
0.333333 1 0.666667
0.666667 1 0.666667
0.333333 0.666667 1
0.666667 0.666667 1
0.333333 1 1
0.666667 1 1
0.666667 0.666667 0.666667
1 0.666667 0.666667
0.666667 1 0.666667
1 1 0.666667
0.666667 0.666667 1
1 0.666667 1
0.666667 1 1
1 1 1

CELLS 27 243
8	0	1	3	2	4	5	7	6
8	8	9	11	10	12	13	15	14
8	16	17	19	18	20	21	23	22
8	24	25	27	26	28	29	31	30
8	32	33	35	34	36	37	39	38
8	40	41	43	42	44	45	47	46
8	48	49	51	50	52	53	55	54
8	56	57	59	58	60	61	63	62
8	64	65	67	66	68	69	71	70
8	72	73	75	74	76	77	79	78
8	80	81	83	82	84	85	87	86
8	88	89	91	90	92	93	95	94
8	96	97	99	98	100	101	103	102
8	104	105	107	106	108	109	111	110
8	112	113	115	114	116	117	119	118
8	120	121	123	122	124	125	127	126
8	128	129	131	130	132	133	135	134
8	136	137	139	138	140	141	143	142
8	144	145	147	146	148	149	151	150
8	152	153	155	154	156	157	159	158
8	160	161	163	162	164	165	167	166
8	168	169	171	170	172	173	175	174
8	176	177	179	178	180	181	183	182
8	184	185	187	186	188	189	191	190
8	192	193	195	194	196	197	199	198
8	200	201	203	202	204	205	207	206
8	208	209	211	210	212	213	215	214

CELL_TYPES 27
 12 12 12 12 12 12 12 12 12 12 12 12 12 12 12 12 12 12 12 12 12 12 12 12 12 12 12
POINT_DATA 216
VECTORS u double
0 0 0
0 0 0
0 0 0
0 0 0
7.56105e-05 3.15136e-05 9.24016e-05
6.17207e-06 0.000250056 0.000505559
-4.30174e-05 9.62491e-06 5.81074e-05
-0.00011099 7.03218e-05 0.00045467
0 0 0
0 0 0
0 0 0
0 0 0
6.17207e-06 0.000250056 0.000505559
-0.000194682 0.000461929 0.000988532
-0.00011099 7.03218e-05 0.00045467
-0.000312594 0.000131283 0.000880579
0 0 0
0 0 0
0 0 0
0 0 0
-0.000194682 0.000461929 0.000988532
-0.000630105 0.000674202 0.00155854
-0.000312594 0.000131283 0.000880579
-0.000755003 0.000191229 0.00143598
0 0 0
0 0 0
0 0 0
0 0 0
-4.30174e-05 9.62491e-06 5.81074e-05
-0.00011099 7.03218e-05 0.00045467
-4.30174e-05 -9.62491e-06 5.81074e-05
-0.00011099 -7.03218e-05 0.00045467
0 0 0
0 0 0
0 0 0
0 0 0
-0.00011099 7.03218e-05 0.00045467
-0.000312594 0.000131283 0.000880579
-0.00011099 -7.03218e-05 0.00045467
-0.000312594 -0.000131283 0.000880579
0 0 0
0 0 0
0 0 0
0 0 0
-0.000312594 0.000131283 0.000880579
-0.000755003 0.000191229 0.00143598
-0.000312594 -0.000131283 0.000880579
-0.000755003 -0.000191229 0.00143598
0 0 0
0 0 0
0 0 0
0 0 0
-4.30174e-05 -9.62491e-06 5.81074e-05
-0.00011099 -7.03218e-05 0.00045467
7.56105e-05 -3.15136e-05 9.24016e-05
6.17207e-06 -0.000250056 0.000505559
0 0 0
0 0 0
0 0 0
0 0 0
-0.00011099 -7.03218e-05 0.00045467
-0.000312594 -0.000131283 0.000880579
6.17207e-06 -0.000250056 0.000505559
-0.000194682 -0.000461929 0.000988532
0 0 0
0 0 0
0 0 0
0 0 0
-0.000312594 -0.000131283 0.000880579
-0.000755003 -0.000191229 0.00143598
-0.000194682 -0.000461929 0.000988532
-0.000630105 -0.000674202 0.00155854
7.56105e-05 3.15136e-05 9.24016e-05
6.17207e-06 0.000250056 0.000505559
-4.30174e-05 9.62491e-06 5.81074e-05
-0.00011099 7.03218e-05 0.00045467
-0.000590209 2.14668e-05 9.92651e-05
-0.000676601 0.000261129 0.00105465
-0.000740186 1.13765e-05 8.41504e-05
-0.000827451 9.1789e-05 0.00103275
6.17207e-06 0.000250056 0.000505559
-0.000194682 0.000461929 0.000988532
-0.00011099 7.03218e-05 0.00045467
-0.000312594 0.000131283 0.000880579
-0.000676601 0.000261129 0.00105465
-0.000941767 0.000501713 0.00206582
-0.000827451 9.1789e-05 0.00103275
-0.00109388 0.000174636 0.00202131
-0.000194682 0.000461929 0.000988532
-0.000630105 0.000674202 0.00155854
-0.000312594 0.000131283 0.000880579
-0.000755003 0.000191229 0.00143598
-0.000941767 0.000501713 0.00206582
-0.0013386 0.000726922 0.00308843
-0.00109388 0.000174636 0.00202131
-0.00150303 0.00025379 0.00303631
-4.30174e-05 9.62491e-06 5.81074e-05
-0.00011099 7.03218e-05 0.00045467
-4.30174e-05 -9.62491e-06 5.81074e-05
-0.00011099 -7.03218e-05 0.00045467
-0.000740186 1.13765e-05 8.41504e-05
-0.000827451 9.1789e-05 0.00103275
-0.000740186 -1.13765e-05 8.41504e-05
-0.000827451 -9.1789e-05 0.00103275
-0.00011099 7.03218e-05 0.00045467
-0.000312594 0.000131283 0.000880579
-0.00011099 -7.03218e-05 0.00045467
-0.000312594 -0.000131283 0.000880579
-0.000827451 9.1789e-05 0.00103275
-0.00109388 0.000174636 0.00202131
-0.000827451 -9.1789e-05 0.00103275
-0.00109388 -0.000174636 0.00202131
-0.000312594 0.000131283 0.000880579
-0.000755003 0.000191229 0.00143598
-0.000312594 -0.000131283 0.000880579
-0.000755003 -0.000191229 0.00143598
-0.00109388 0.000174636 0.00202131
-0.00150303 0.00025379 0.00303631
-0.00109388 -0.000174636 0.00202131
-0.00150303 -0.00025379 0.00303631
-4.30174e-05 -9.62491e-06 5.81074e-05
-0.00011099 -7.03218e-05 0.00045467
7.56105e-05 -3.15136e-05 9.24016e-05
6.17207e-06 -0.000250056 0.000505559
-0.000740186 -1.13765e-05 8.41504e-05
-0.000827451 -9.1789e-05 0.00103275
-0.000590209 -2.14668e-05 9.92651e-05
-0.000676601 -0.000261129 0.00105465
-0.00011099 -7.03218e-05 0.00045467
-0.000312594 -0.000131283 0.000880579
6.17207e-06 -0.000250056 0.000505559
-0.000194682 -0.000461929 0.000988532
-0.000827451 -9.1789e-05 0.00103275
-0.00109388 -0.000174636 0.00202131
-0.000676601 -0.000261129 0.00105465
-0.000941767 -0.000501713 0.00206582
-0.000312594 -0.000131283 0.000880579
-0.000755003 -0.000191229 0.00143598
-0.000194682 -0.000461929 0.000988532
-0.000630105 -0.000674202 0.00155854
-0.00109388 -0.000174636 0.00202131
-0.00150303 -0.00025379 0.00303631
-0.000941767 -0.000501713 0.00206582
-0.0013386 -0.000726922 0.00308843
-0.000590209 2.14668e-05 9.92651e-05
-0.000676601 0.000261129 0.00105465
-0.000740186 1.13765e-05 8.41504e-05
-0.000827451 9.1789e-05 0.00103275
-0.00181566 2.07702e-05 0.000144588
-0.00192277 0.000261953 0.00161287
-0.00197357 8.5685e-06 0.00013877
-0.00208081 8.94425e-05 0.00160508
-0.000676601 0.000261129 0.00105465
-0.000941767 0.000501713 0.00206582
-0.000827451 9.1789e-05 0.00103275
-0.00109388 0.000174636 0.00202131
-0.00192277 0.000261953 0.00161287
-0.00218445 0.000513504 0.00316936
-0.00208081 8.94425e-05 0.00160508
-0.00234312 0.000172866 0.00315289
-0.000941767 0.000501713 0.00206582
-0.0013386 0.000726922 0.00308843
-0.00109388 0.000174636 0.00202131
-0.00150303 0.00025379 0.00303631
-0.00218445 0.000513504 0.00316936
-0.00259044 0.000754014 0.00466593
-0.00234312 0.000172866 0.00315289
-0.00274903 0.000253115 0.00464346
-0.000740186 1.13765e-05 8.41504e-05
-0.000827451 9.1789e-05 0.00103275
-0.000740186 -1.13765e-05 8.41504e-05
-0.000827451 -9.1789e-05 0.00103275
-0.00197357 8.5685e-06 0.00013877
-0.00208081 8.94425e-05 0.00160508
-0.00197357 -8.5685e-06 0.00013877
-0.00208081 -8.94425e-05 0.00160508
-0.000827451 9.1789e-05 0.00103275
-0.00109388 0.000174636 0.00202131
-0.000827451 -9.1789e-05 0.00103275
-0.00109388 -0.000174636 0.00202131
-0.00208081 8.94425e-05 0.00160508
-0.00234312 0.000172866 0.00315289
-0.00208081 -8.94425e-05 0.00160508
-0.00234312 -0.000172866 0.00315289
-0.00109388 0.000174636 0.00202131
-0.00150303 0.00025379 0.00303631
-0.00109388 -0.000174636 0.00202131
-0.00150303 -0.00025379 0.00303631
-0.00234312 0.000172866 0.00315289
-0.00274903 0.000253115 0.00464346
-0.00234312 -0.000172866 0.00315289
-0.00274903 -0.000253115 0.00464346
-0.000740186 -1.13765e-05 8.41504e-05
-0.000827451 -9.1789e-05 0.00103275
-0.000590209 -2.14668e-05 9.92651e-05
-0.000676601 -0.000261129 0.00105465
-0.00197357 -8.5685e-06 0.00013877
-0.00208081 -8.94425e-05 0.00160508
-0.00181566 -2.07702e-05 0.000144588
-0.00192277 -0.000261953 0.00161287
-0.000827451 -9.1789e-05 0.00103275
-0.00109388 -0.000174636 0.00202131
-0.000676601 -0.000261129 0.00105465
-0.000941767 -0.000501713 0.00206582
-0.00208081 -8.94425e-05 0.00160508
-0.00234312 -0.000172866 0.00315289
-0.00192277 -0.000261953 0.00161287
-0.00218445 -0.000513504 0.00316936
-0.00109388 -0.000174636 0.00202131
-0.00150303 -0.00025379 0.00303631
-0.000941767 -0.000501713 0.00206582
-0.0013386 -0.000726922 0.00308843
-0.00234312 -0.000172866 0.00315289
-0.00274903 -0.000253115 0.00464346
-0.00218445 -0.000513504 0.00316936
-0.00259044 -0.000754014 0.00466593
